 Gaussian 09, Revision E.01,
 Gaussian 09:  ES64L-G09RevE.01 30-Nov-2015

 ----------------------------------------------------------------------
 #P BP86/def2TZVPP/W06 DenFit opt(MaxCycle=100) scf(xqc,MaxConventional
 Cycle=500) scrf(pcm,solvent=water) EmpiricalDispersion=GD3BJ int(ultra
 finegrid) gfinput gfoldprint iop(6/7=3) symmetry(loose)
 ----------------------------------------------------------------------

 --------------------------------------------
 Water in water DF-BP86-D3(BJ)-PCM/def2-TZVPP
 --------------------------------------------
 Symbolic Z-matrix:
 Charge =  0 Multiplicity = 1

 SCF Done:  E(RB-P86) =  -76.4724780106     A.U. after    7 cycles
 SCF Done:  E(RB-P86) =  -76.4737937858     A.U. after    7 cycles
 SCF Done:  E(RB-P86) =  -76.4738618341     A.U. after    7 cycles
 SCF Done:  E(RB-P86) =  -76.4738622948     A.U. after    5 cycles
 Optimization completed.
    -- Stationary point found.

                         Standard orientation:
 ---------------------------------------------------------------------
 Center     Atomic      Atomic             Coordinates (Angstroms)
 Number     Number       Type             X           Y           Z
 ---------------------------------------------------------------------
      1          8           0       -0.000000    0.000000    0.120160
      2          1           0        0.000000   -0.763022   -0.480641
      3          1           0        0.000000    0.763022   -0.480641
 ---------------------------------------------------------------------

 The electronic state is 1-A1.
 Alpha  occ. eigenvalues --  -18.76965  -0.92573  -0.47716  -0.34590  -0.26729
 Alpha virt. eigenvalues --    0.01083   0.09032   0.32121   0.35625   0.38067
 Alpha virt. eigenvalues --    0.38306   0.50024   0.52387   0.59951   0.64010
 Alpha virt. eigenvalues --    0.72192   0.96596   1.12453   1.17986   1.66699

 Mulliken charges:
               1
     1  O   -0.467095
     2  H    0.233547
     3  H    0.233547
 Sum of Mulliken charges =   0.00000

 Dipole moment (field-independent basis, Debye):
    X=              0.0000    Y=             -0.0000    Z=             -2.1944  Tot=              2.1944
 Quadrupole moment (field-independent basis, Debye-Ang):
   XX=             -7.6240   YY=             -4.3409   ZZ=             -6.2918
   XY=              0.0000   XZ=             -0.0000   YZ=              0.0000

 Normal termination of Gaussian 09 at Thu Jan 11 15:48:39 2018.
