 Gaussian 09, Revision E.01,
 Gaussian 09:  ES64L-G09RevE.01 30-Nov-2015

 ----------------------------------------------------------------------
 #P B3LYP/def2SVP opt(MaxCycle=100) scf(xqc,MaxConventionalCycle=500) i
 nt(ultrafinegrid) gfinput gfoldprint iop(6/7=3) symmetry(loose)
 ----------------------------------------------------------------------

 --------------------
 Water B3LYP/def2-SVP
 --------------------
 Symbolic Z-matrix:
 Charge =  0 Multiplicity = 1

 SCF Done:  E(RB3LYP) =  -76.3570247838     A.U. after    8 cycles
 SCF Done:  E(RB3LYP) =  -76.3582686633     A.U. after    9 cycles
 SCF Done:  E(RB3LYP) =  -76.3583156729     A.U. after    7 cycles
 Optimization completed.
    -- Stationary point found.

                         Standard orientation:
 ---------------------------------------------------------------------
 Center     Atomic      Atomic             Coordinates (Angstroms)
 Number     Number       Type             X           Y           Z
 ---------------------------------------------------------------------
      1          8           0        0.000000   -0.000000    0.120220
      2          1           0        0.000000   -0.756864   -0.480880
      3          1           0        0.000000    0.756864   -0.480880
 ---------------------------------------------------------------------

 The electronic state is 1-A1.
 Alpha  occ. eigenvalues --  -19.11963  -0.97988  -0.51167  -0.36793  -0.29168
 Alpha virt. eigenvalues --    0.04484   0.12394   0.55518   0.62069   0.91735
 Alpha virt. eigenvalues --    0.92035   1.00686   1.09516   1.34773   1.39526
 Alpha virt. eigenvalues --    1.54217   1.78688   2.19917   2.24633   2.96068

 Mulliken charges:
               1
     1  O   -0.294327
     2  H    0.147163
     3  H    0.147163
 Sum of Mulliken charges =  -0.00000

 Dipole moment (field-independent basis, Debye):
    X=              0.0000    Y=             -0.0000    Z=             -2.0045  Tot=              2.0045
 Quadrupole moment (field-independent basis, Debye-Ang):
   XX=             -7.0028   YY=             -4.3530   ZZ=             -5.9369
   XY=              0.0000   XZ=             -0.0000   YZ=              0.0000

 Normal termination of Gaussian 09 at Thu Jan 11 16:00:39 2018.
