 Gaussian 09, Revision E.01,
 Gaussian 09:  ES64L-G09RevE.01 30-Nov-2015

 ----------------------------------------------------------------------
 #P BP86/def2SVP/W06 DenFit opt(MaxCycle=100) scf(xqc,MaxConventionalCy
 cle=500) int(ultrafinegrid) gfinput gfoldprint iop(6/7=3) symmetry(loo
 se) pop=full pop=nbo6
 ----------------------------------------------------------------------

 ------------------------
 Ammonia DF-BP86/def2-SVP
 ------------------------
 Symbolic Z-matrix:
 Charge =  0 Multiplicity = 4

 SCF Done:  E(UB-P86) =  -54.5274740619     A.U. after    7 cycles

 The electronic state is 4-A1G.
 Alpha  occ. eigenvalues --  -14.11803  -0.70608  -0.29512  -0.29512  -0.29512
 Alpha virt. eigenvalues --    0.45953   0.60859   0.60859   0.60859   1.96324
 Alpha virt. eigenvalues --    1.96324   1.96324   1.96324   1.96324
  Beta  occ. eigenvalues --  -14.06468  -0.54472
  Beta virt. eigenvalues --   -0.13950  -0.13950  -0.13950   0.56019   0.72516
  Beta virt. eigenvalues --    0.72516   0.72516   2.13155   2.13155   2.13155
  Beta virt. eigenvalues --    2.13155   2.13155

 Mulliken charges and spin densities:
               1          2
     1  N    0.000000   3.000000
 Sum of Mulliken charges =   0.00000   3.00000

 Dipole moment (field-independent basis, Debye):
    X=              0.0000    Y=              0.0000    Z=              0.0000  Tot=              0.0000
 Quadrupole moment (field-independent basis, Debye-Ang):
   XX=             -5.3427   YY=             -5.3427   ZZ=             -5.3427
   XY=              0.0000   XZ=              0.0000   YZ=             -0.0000

 Summary of Natural Population Analysis:

                                     Natural Population
             Natural    ---------------------------------------------
  Atom No    Charge        Core      Valence    Rydberg      Total
 --------------------------------------------------------------------
    N  1    1.50000      1.00000     0.99944    0.00056     2.00000
 ====================================================================
 * Total *  1.50000      1.00000     0.99944    0.00056     2.00000

 Optimization completed.
    -- Stationary point found.

                         Standard orientation:
 ---------------------------------------------------------------------
 Center     Atomic      Atomic             Coordinates (Angstroms)
 Number     Number       Type             X           Y           Z
 ---------------------------------------------------------------------
      1          7           0        0.000000    0.000000    0.000000
 ---------------------------------------------------------------------

 Normal termination of Gaussian 09 at Thu Jan 11 16:39:21 2018.
