 Gaussian 09, Revision E.01,
 Gaussian 09:  ES64L-G09RevE.01 30-Nov-2015

 ----------------------------------------------------------------------
 #P BP86/def2SVP/W06 DenFit opt(MaxCycle=100) scf(xqc,MaxConventionalCy
 cle=500) int(ultrafinegrid) gfinput gfoldprint iop(6/7=3) symmetry(loo
 se) pop=full pop=nbo6
 ----------------------------------------------------------------------

 -----------------------
 Local Min Search (Sing)
 -----------------------
 Symbolic Z-matrix:
 Charge =  0 Multiplicity = 1

 SCF Done:  E(RB-P86) =  -76.3572146203     A.U. after    9 cycles
 SCF Done:  E(RB-P86) =  -76.3591995180     A.U. after    9 cycles
 SCF Done:  E(RB-P86) =  -76.3593047710     A.U. after    7 cycles
 SCF Done:  E(RB-P86) =  -76.3593058496     A.U. after    6 cycles
 Optimization completed.
    -- Stationary point found.

                         Standard orientation:
 ---------------------------------------------------------------------
 Center     Atomic      Atomic             Coordinates (Angstroms)
 Number     Number       Type             X           Y           Z
 ---------------------------------------------------------------------
      1          8           0        0.000000   -0.000000    0.122615
      2          1           0        0.000000   -0.759055   -0.490461
      3          1           0        0.000000    0.759055   -0.490461
 ---------------------------------------------------------------------

 The electronic state is 1-A1.
 Alpha  occ. eigenvalues --  -18.76326  -0.89112  -0.45558  -0.31402  -0.23353
 Alpha virt. eigenvalues --    0.02845   0.10475   0.50640   0.57009   0.86127
 Alpha virt. eigenvalues --    0.86174   0.95414   1.04067   1.28560   1.32570
 Alpha virt. eigenvalues --    1.47282   1.71612   2.09918   2.14961   2.86557

 Mulliken charges:
               1
     1  O   -0.298997
     2  H    0.149498
     3  H    0.149498
 Sum of Mulliken charges =  -0.00000

 Dipole moment (field-independent basis, Debye):
    X=              0.0000    Y=              0.0000    Z=             -1.9845  Tot=              1.9845
 Quadrupole moment (field-independent basis, Debye-Ang):
   XX=             -7.0296   YY=             -4.4080   ZZ=             -5.9370
   XY=              0.0000   XZ=             -0.0000   YZ=             -0.0000

 Summary of Natural Population Analysis:

                                     Natural Population
             Natural    ---------------------------------------------
  Atom No    Charge        Core      Valence    Rydberg      Total
 --------------------------------------------------------------------
    O  1   -0.88384      1.99997     6.86886    0.01500     8.88384
    H  2    0.44192      0.00000     0.55171    0.00637     0.55808
    H  3    0.44192      0.00000     0.55171    0.00637     0.55808
 ====================================================================
 * Total *  0.00000      1.99997     7.97228    0.02775    10.00000

 Normal termination of Gaussian 09 at Thu Jan 11 15:40:30 2018.
